# vtk DataFile Version 2.0
cfd2d
ASCII
DATASET STRUCTURED_GRID
DIMENSIONS 	100		100		1
POINTS 	10000	double
0.005 0.995 0 
0.005 0.985 0 
0.005 0.975 0 
0.005 0.965 0 
0.005 0.955 0 
0.005 0.945 0 
0.005 0.935 0 
0.005 0.925 0 
0.005 0.915 0 
0.005 0.905 0 
0.005 0.895 0 
0.005 0.885 0 
0.005 0.875 0 
0.005 0.865 0 
0.005 0.855 0 
0.005 0.845 0 
0.005 0.835 0 
0.005 0.825 0 
0.005 0.815 0 
0.005 0.805 0 
0.005 0.795 0 
0.005 0.785 0 
0.005 0.775 0 
0.005 0.765 0 
0.005 0.755 0 
0.005 0.745 0 
0.005 0.735 0 
0.005 0.725 0 
0.005 0.715 0 
0.005 0.705 0 
0.005 0.695 0 
0.005 0.685 0 
0.005 0.675 0 
0.005 0.665 0 
0.005 0.655 0 
0.005 0.645 0 
0.005 0.635 0 
0.005 0.625 0 
0.005 0.615 0 
0.005 0.605 0 
0.005 0.595 0 
0.005 0.585 0 
0.005 0.575 0 
0.005 0.565 0 
0.005 0.555 0 
0.005 0.545 0 
0.005 0.535 0 
0.005 0.525 0 
0.005 0.515 0 
0.005 0.505 0 
0.005 0.495 0 
0.005 0.485 0 
0.005 0.475 0 
0.005 0.465 0 
0.005 0.455 0 
0.005 0.445 0 
0.005 0.435 0 
0.005 0.425 0 
0.005 0.415 0 
0.005 0.405 0 
0.005 0.395 0 
0.005 0.385 0 
0.005 0.375 0 
0.005 0.365 0 
0.005 0.355 0 
0.005 0.345 0 
0.005 0.335 0 
0.005 0.325 0 
0.005 0.315 0 
0.005 0.305 0 
0.005 0.295 0 
0.005 0.285 0 
0.005 0.275 0 
0.005 0.265 0 
0.005 0.255 0 
0.005 0.245 0 
0.005 0.235 0 
0.005 0.225 0 
0.005 0.215 0 
0.005 0.205 0 
0.005 0.195 0 
0.005 0.185 0 
0.005 0.175 0 
0.005 0.165 0 
0.005 0.155 0 
0.005 0.145 0 
0.005 0.135 0 
0.005 0.125 0 
0.005 0.115 0 
0.005 0.105 0 
0.005 0.095 0 
0.005 0.085 0 
0.005 0.075 0 
0.005 0.065 0 
0.005 0.055 0 
0.005 0.045 0 
0.005 0.035 0 
0.005 0.025 0 
0.005 0.015 0 
0.005 0.005 0 
0.015 0.995 0 
0.015 0.985 0 
0.015 0.975 0 
0.015 0.965 0 
0.015 0.955 0 
0.015 0.945 0 
0.015 0.935 0 
0.015 0.925 0 
0.015 0.915 0 
0.015 0.905 0 
0.015 0.895 0 
0.015 0.885 0 
0.015 0.875 0 
0.015 0.865 0 
0.015 0.855 0 
0.015 0.845 0 
0.015 0.835 0 
0.015 0.825 0 
0.015 0.815 0 
0.015 0.805 0 
0.015 0.795 0 
0.015 0.785 0 
0.015 0.775 0 
0.015 0.765 0 
0.015 0.755 0 
0.015 0.745 0 
0.015 0.735 0 
0.015 0.725 0 
0.015 0.715 0 
0.015 0.705 0 
0.015 0.695 0 
0.015 0.685 0 
0.015 0.675 0 
0.015 0.665 0 
0.015 0.655 0 
0.015 0.645 0 
0.015 0.635 0 
0.015 0.625 0 
0.015 0.615 0 
0.015 0.605 0 
0.015 0.595 0 
0.015 0.585 0 
0.015 0.575 0 
0.015 0.565 0 
0.015 0.555 0 
0.015 0.545 0 
0.015 0.535 0 
0.015 0.525 0 
0.015 0.515 0 
0.015 0.505 0 
0.015 0.495 0 
0.015 0.485 0 
0.015 0.475 0 
0.015 0.465 0 
0.015 0.455 0 
0.015 0.445 0 
0.015 0.435 0 
0.015 0.425 0 
0.015 0.415 0 
0.015 0.405 0 
0.015 0.395 0 
0.015 0.385 0 
0.015 0.375 0 
0.015 0.365 0 
0.015 0.355 0 
0.015 0.345 0 
0.015 0.335 0 
0.015 0.325 0 
0.015 0.315 0 
0.015 0.305 0 
0.015 0.295 0 
0.015 0.285 0 
0.015 0.275 0 
0.015 0.265 0 
0.015 0.255 0 
0.015 0.245 0 
0.015 0.235 0 
0.015 0.225 0 
0.015 0.215 0 
0.015 0.205 0 
0.015 0.195 0 
0.015 0.185 0 
0.015 0.175 0 
0.015 0.165 0 
0.015 0.155 0 
0.015 0.145 0 
0.015 0.135 0 
0.015 0.125 0 
0.015 0.115 0 
0.015 0.105 0 
0.015 0.095 0 
0.015 0.085 0 
0.015 0.075 0 
0.015 0.065 0 
0.015 0.055 0 
0.015 0.045 0 
0.015 0.035 0 
0.015 0.025 0 
0.015 0.015 0 
0.015 0.005 0 
0.025 0.995 0 
0.025 0.985 0 
0.025 0.975 0 
0.025 0.965 0 
0.025 0.955 0 
0.025 0.945 0 
0.025 0.935 0 
0.025 0.925 0 
0.025 0.915 0 
0.025 0.905 0 
0.025 0.895 0 
0.025 0.885 0 
0.025 0.875 0 
0.025 0.865 0 
0.025 0.855 0 
0.025 0.845 0 
0.025 0.835 0 
0.025 0.825 0 
0.025 0.815 0 
0.025 0.805 0 
0.025 0.795 0 
0.025 0.785 0 
0.025 0.775 0 
0.025 0.765 0 
0.025 0.755 0 
0.025 0.745 0 
0.025 0.735 0 
0.025 0.725 0 
0.025 0.715 0 
0.025 0.705 0 
0.025 0.695 0 
0.025 0.685 0 
0.025 0.675 0 
0.025 0.665 0 
0.025 0.655 0 
0.025 0.645 0 
0.025 0.635 0 
0.025 0.625 0 
0.025 0.615 0 
0.025 0.605 0 
0.025 0.595 0 
0.025 0.585 0 
0.025 0.575 0 
0.025 0.565 0 
0.025 0.555 0 
0.025 0.545 0 
0.025 0.535 0 
0.025 0.525 0 
0.025 0.515 0 
0.025 0.505 0 
0.025 0.495 0 
0.025 0.485 0 
0.025 0.475 0 
0.025 0.465 0 
0.025 0.455 0 
0.025 0.445 0 
0.025 0.435 0 
0.025 0.425 0 
0.025 0.415 0 
0.025 0.405 0 
0.025 0.395 0 
0.025 0.385 0 
0.025 0.375 0 
0.025 0.365 0 
0.025 0.355 0 
0.025 0.345 0 
0.025 0.335 0 
0.025 0.325 0 
0.025 0.315 0 
0.025 0.305 0 
0.025 0.295 0 
0.025 0.285 0 
0.025 0.275 0 
0.025 0.265 0 
0.025 0.255 0 
0.025 0.245 0 
0.025 0.235 0 
0.025 0.225 0 
0.025 0.215 0 
0.025 0.205 0 
0.025 0.195 0 
0.025 0.185 0 
0.025 0.175 0 
0.025 0.165 0 
0.025 0.155 0 
0.025 0.145 0 
0.025 0.135 0 
0.025 0.125 0 
0.025 0.115 0 
0.025 0.105 0 
0.025 0.095 0 
0.025 0.085 0 
0.025 0.075 0 
0.025 0.065 0 
0.025 0.055 0 
0.025 0.045 0 
0.025 0.035 0 
0.025 0.025 0 
0.025 0.015 0 
0.025 0.005 0 
0.035 0.995 0 
0.035 0.985 0 
0.035 0.975 0 
0.035 0.965 0 
0.035 0.955 0 
0.035 0.945 0 
0.035 0.935 0 
0.035 0.925 0 
0.035 0.915 0 
0.035 0.905 0 
0.035 0.895 0 
0.035 0.885 0 
0.035 0.875 0 
0.035 0.865 0 
0.035 0.855 0 
0.035 0.845 0 
0.035 0.835 0 
0.035 0.825 0 
0.035 0.815 0 
0.035 0.805 0 
0.035 0.795 0 
0.035 0.785 0 
0.035 0.775 0 
0.035 0.765 0 
0.035 0.755 0 
0.035 0.745 0 
0.035 0.735 0 
0.035 0.725 0 
0.035 0.715 0 
0.035 0.705 0 
0.035 0.695 0 
0.035 0.685 0 
0.035 0.675 0 
0.035 0.665 0 
0.035 0.655 0 
0.035 0.645 0 
0.035 0.635 0 
0.035 0.625 0 
0.035 0.615 0 
0.035 0.605 0 
0.035 0.595 0 
0.035 0.585 0 
0.035 0.575 0 
0.035 0.565 0 
0.035 0.555 0 
0.035 0.545 0 
0.035 0.535 0 
0.035 0.525 0 
0.035 0.515 0 
0.035 0.505 0 
0.035 0.495 0 
0.035 0.485 0 
0.035 0.475 0 
0.035 0.465 0 
0.035 0.455 0 
0.035 0.445 0 
0.035 0.435 0 
0.035 0.425 0 
0.035 0.415 0 
0.035 0.405 0 
0.035 0.395 0 
0.035 0.385 0 
0.035 0.375 0 
0.035 0.365 0 
0.035 0.355 0 
0.035 0.345 0 
0.035 0.335 0 
0.035 0.325 0 
0.035 0.315 0 
0.035 0.305 0 
0.035 0.295 0 
0.035 0.285 0 
0.035 0.275 0 
0.035 0.265 0 
0.035 0.255 0 
0.035 0.245 0 
0.035 0.235 0 
0.035 0.225 0 
0.035 0.215 0 
0.035 0.205 0 
0.035 0.195 0 
0.035 0.185 0 
0.035 0.175 0 
0.035 0.165 0 
0.035 0.155 0 
0.035 0.145 0 
0.035 0.135 0 
0.035 0.125 0 
0.035 0.115 0 
0.035 0.105 0 
0.035 0.095 0 
0.035 0.085 0 
0.035 0.075 0 
0.035 0.065 0 
0.035 0.055 0 
0.035 0.045 0 
0.035 0.035 0 
0.035 0.025 0 
0.035 0.015 0 
0.035 0.005 0 
0.045 0.995 0 
0.045 0.985 0 
0.045 0.975 0 
0.045 0.965 0 
0.045 0.955 0 
0.045 0.945 0 
0.045 0.935 0 
0.045 0.925 0 
0.045 0.915 0 
0.045 0.905 0 
0.045 0.895 0 
0.045 0.885 0 
0.045 0.875 0 
0.045 0.865 0 
0.045 0.855 0 
0.045 0.845 0 
0.045 0.835 0 
0.045 0.825 0 
0.045 0.815 0 
0.045 0.805 0 
0.045 0.795 0 
0.045 0.785 0 
0.045 0.775 0 
0.045 0.765 0 
0.045 0.755 0 
0.045 0.745 0 
0.045 0.735 0 
0.045 0.725 0 
0.045 0.715 0 
0.045 0.705 0 
0.045 0.695 0 
0.045 0.685 0 
0.045 0.675 0 
0.045 0.665 0 
0.045 0.655 0 
0.045 0.645 0 
0.045 0.635 0 
0.045 0.625 0 
0.045 0.615 0 
0.045 0.605 0 
0.045 0.595 0 
0.045 0.585 0 
0.045 0.575 0 
0.045 0.565 0 
0.045 0.555 0 
0.045 0.545 0 
0.045 0.535 0 
0.045 0.525 0 
0.045 0.515 0 
0.045 0.505 0 
0.045 0.495 0 
0.045 0.485 0 
0.045 0.475 0 
0.045 0.465 0 
0.045 0.455 0 
0.045 0.445 0 
0.045 0.435 0 
0.045 0.425 0 
0.045 0.415 0 
0.045 0.405 0 
0.045 0.395 0 
0.045 0.385 0 
0.045 0.375 0 
0.045 0.365 0 
0.045 0.355 0 
0.045 0.345 0 
0.045 0.335 0 
0.045 0.325 0 
0.045 0.315 0 
0.045 0.305 0 
0.045 0.295 0 
0.045 0.285 0 
0.045 0.275 0 
0.045 0.265 0 
0.045 0.255 0 
0.045 0.245 0 
0.045 0.235 0 
0.045 0.225 0 
0.045 0.215 0 
0.045 0.205 0 
0.045 0.195 0 
0.045 0.185 0 
0.045 0.175 0 
0.045 0.165 0 
0.045 0.155 0 
0.045 0.145 0 
0.045 0.135 0 
0.045 0.125 0 
0.045 0.115 0 
0.045 0.105 0 
0.045 0.095 0 
0.045 0.085 0 
0.045 0.075 0 
0.045 0.065 0 
0.045 0.055 0 
0.045 0.045 0 
0.045 0.035 0 
0.045 0.025 0 
0.045 0.015 0 
0.045 0.005 0 
0.055 0.995 0 
0.055 0.985 0 
0.055 0.975 0 
0.055 0.965 0 
0.055 0.955 0 
0.055 0.945 0 
0.055 0.935 0 
0.055 0.925 0 
0.055 0.915 0 
0.055 0.905 0 
0.055 0.895 0 
0.055 0.885 0 
0.055 0.875 0 
0.055 0.865 0 
0.055 0.855 0 
0.055 0.845 0 
0.055 0.835 0 
0.055 0.825 0 
0.055 0.815 0 
0.055 0.805 0 
0.055 0.795 0 
0.055 0.785 0 
0.055 0.775 0 
0.055 0.765 0 
0.055 0.755 0 
0.055 0.745 0 
0.055 0.735 0 
0.055 0.725 0 
0.055 0.715 0 
0.055 0.705 0 
0.055 0.695 0 
0.055 0.685 0 
0.055 0.675 0 
0.055 0.665 0 
0.055 0.655 0 
0.055 0.645 0 
0.055 0.635 0 
0.055 0.625 0 
0.055 0.615 0 
0.055 0.605 0 
0.055 0.595 0 
0.055 0.585 0 
0.055 0.575 0 
0.055 0.565 0 
0.055 0.555 0 
0.055 0.545 0 
0.055 0.535 0 
0.055 0.525 0 
0.055 0.515 0 
0.055 0.505 0 
0.055 0.495 0 
0.055 0.485 0 
0.055 0.475 0 
0.055 0.465 0 
0.055 0.455 0 
0.055 0.445 0 
0.055 0.435 0 
0.055 0.425 0 
0.055 0.415 0 
0.055 0.405 0 
0.055 0.395 0 
0.055 0.385 0 
0.055 0.375 0 
0.055 0.365 0 
0.055 0.355 0 
0.055 0.345 0 
0.055 0.335 0 
0.055 0.325 0 
0.055 0.315 0 
0.055 0.305 0 
0.055 0.295 0 
0.055 0.285 0 
0.055 0.275 0 
0.055 0.265 0 
0.055 0.255 0 
0.055 0.245 0 
0.055 0.235 0 
0.055 0.225 0 
0.055 0.215 0 
0.055 0.205 0 
0.055 0.195 0 
0.055 0.185 0 
0.055 0.175 0 
0.055 0.165 0 
0.055 0.155 0 
0.055 0.145 0 
0.055 0.135 0 
0.055 0.125 0 
0.055 0.115 0 
0.055 0.105 0 
0.055 0.095 0 
0.055 0.085 0 
0.055 0.075 0 
0.055 0.065 0 
0.055 0.055 0 
0.055 0.045 0 
0.055 0.035 0 
0.055 0.025 0 
0.055 0.015 0 
0.055 0.005 0 
0.065 0.995 0 
0.065 0.985 0 
0.065 0.975 0 
0.065 0.965 0 
0.065 0.955 0 
0.065 0.945 0 
0.065 0.935 0 
0.065 0.925 0 
0.065 0.915 0 
0.065 0.905 0 
0.065 0.895 0 
0.065 0.885 0 
0.065 0.875 0 
0.065 0.865 0 
0.065 0.855 0 
0.065 0.845 0 
0.065 0.835 0 
0.065 0.825 0 
0.065 0.815 0 
0.065 0.805 0 
0.065 0.795 0 
0.065 0.785 0 
0.065 0.775 0 
0.065 0.765 0 
0.065 0.755 0 
0.065 0.745 0 
0.065 0.735 0 
0.065 0.725 0 
0.065 0.715 0 
0.065 0.705 0 
0.065 0.695 0 
0.065 0.685 0 
0.065 0.675 0 
0.065 0.665 0 
0.065 0.655 0 
0.065 0.645 0 
0.065 0.635 0 
0.065 0.625 0 
0.065 0.615 0 
0.065 0.605 0 
0.065 0.595 0 
0.065 0.585 0 
0.065 0.575 0 
0.065 0.565 0 
0.065 0.555 0 
0.065 0.545 0 
0.065 0.535 0 
0.065 0.525 0 
0.065 0.515 0 
0.065 0.505 0 
0.065 0.495 0 
0.065 0.485 0 
0.065 0.475 0 
0.065 0.465 0 
0.065 0.455 0 
0.065 0.445 0 
0.065 0.435 0 
0.065 0.425 0 
0.065 0.415 0 
[...]
CELL_DATA 	9801
POINT_DATA 	10000
SCALARS density double 
LOOKUP_TABLE default 
1.2 1.2 1.2 1.2 1.2 1.2 1.2 1.2 1.2 1.2 1.2 1.19999 1.19999 1.20071 1.19865 1.19283 1.38641 1.80501 1.86581 1.86693 1.8311 1.81353 1.81204 1.83148 1.84721 1.84417 1.82942 1.80811 1.80069 1.80516 1.80885 1.80424 1.79193 1.7725 1.75641 1.74272 1.72896 1.7256 1.73151 1.73585 1.73383 1.73019 1.72614 1.70897 1.65536 1.58037 1.53367 1.52618 1.64398 2.05122 2.61794 2.93409 2.98705 2.98257 2.94664 2.88174 2.8104 2.75165 2.68815 2.60209 2.52099 2.49886 2.48937 2.41528 2.27431 2.11489 1.96398 1.84127 1.71153 1.48243 1.18424 1.00787 0.957228 0.930514 0.926907 0.921435 0.920405 0.92156 0.924806 0.927379 0.928462 0.929052 0.929975 0.930918 0.931942 0.93288 0.933468 0.933811 0.934178 0.934749 0.935499 0.936303 0.937083 0.937813 0.938399 0.938726 0.938829 0.938957 0.939041 0.93902 1.2 1.2 1.2 1.2 1.2 1.2 1.2 1.2 1.2 1.2 1.2 1.19999 1.19999 1.20068 1.19875 1.19288 1.38061 1.79876 1.86107 1.86264 1.82859 1.8132 1.81278 1.8317 1.84502 1.84091 1.82512 1.80521 1.7986 1.80321 1.80543 1.79884 1.78333 1.76394 1.75176 1.74203 1.7339 1.7308 1.73122 1.73035 1.72563 1.71929 1.71302 1.69447 1.64572 1.57497 1.52783 1.52014 1.63312 2.03461 2.60081 2.92029 2.97533 2.97214 2.93939 2.8734 2.79844 2.73599 2.67353 2.5892 2.50755 2.47799 2.46589 2.38939 2.25464 2.10089 1.95997 1.84332 1.71807 1.4876 1.17961 0.996807 0.944976 0.917636 0.913667 0.908342 0.907414 0.908562 0.911808 0.914443 0.915278 0.915652 0.916585 0.917507 0.918393 0.919206 0.919751 0.920118 0.92052 0.921097 0.921819 0.922581 0.92332 0.924023 0.924593 0.924917 0.92502 0.92514 0.925214 0.925189 1.2 1.2 1.2 1.2 1.2 1.2 1.2 1.2 1.2 1.2 1.2 1.19999 1.19997 1.20048 1.19919 1.19322 1.36856 1.79131 1.86069 1.86361 1.83296 1.81898 1.81895 1.83498 1.84506 1.84013 1.82451 1.80694 1.80147 1.80442 1.80403 1.79592 1.77858 1.76376 1.75626 1.75458 1.75105 1.74331 1.73318 1.72453 1.71593 1.7084 1.70296 1.69056 1.65084 1.58396 1.5359 1.52706 1.62783 2.00617 2.57385 2.91896 2.98237 2.98371 2.95418 2.88773 2.81202 2.75152 2.69339 2.61138 2.52557 2.48102 2.46404 2.38583 2.25417 2.10323 1.96984 1.85719 1.74352 1.52706 1.20861 1.00911 0.951786 0.924376 0.920208 0.914667 0.913786 0.914861 0.917939 0.920728 0.92211 0.923327 0.924499 0.925501 0.926414 0.927405 0.928211 0.928789 0.929273 0.929821 0.930475 0.931196 0.931942 0.932667 0.933249 0.933578 0.933696 0.933833 0.933907 0.933882 1.2 1.2 1.2 1.2 1.2 1.2 1.2 1.2 1.2 1.2 1.2 1.19999 1.19997 1.20043 1.19928 1.19275 1.352 1.77844 1.85792 1.86303 1.83653 1.82264 1.82197 1.83441 1.84211 1.83645 1.82208 1.80751 1.80277 1.80383 1.79951 1.78857 1.77061 1.75963 1.75862 1.7606 1.75727 1.74611 1.73235 1.71902 1.70638 1.69474 1.68792 1.67886 1.64716 1.58775 1.53802 1.52745 1.60165 1.92303 2.48 2.88837 2.9802 2.98629 2.95666 2.88932 2.81376 2.75764 2.70402 2.62428 2.53255 2.47488 2.44888 2.36938 2.24446 2.09715 1.96707 1.84983 1.74143 1.55084 1.23667 1.01639 0.951053 0.923638 0.919135 0.913245 0.912299 0.913356 0.916311 0.919862 0.923111 0.925212 0.926551 0.927745 0.928902 0.930072 0.931075 0.931801 0.932347 0.932895 0.933523 0.934217 0.934948 0.935666 0.93624 0.936556 0.936667 0.936807 0.936883 0.936857 1.2 1.2 1.2 1.2 1.2 1.2 1.2 1.2 1.2 1.2 1.2 1.19999 1.19997 1.20041 1.19936 1.19236 1.33197 1.76003 1.85571 1.86371 1.84338 1.83065 1.82925 1.83579 1.839 1.83356 1.82168 1.81032 1.80586 1.80448 1.79673 1.78231 1.76583 1.75766 1.76013 1.76483 1.76335 1.75321 1.73429 1.7163 1.70139 1.68894 1.67948 1.6686 1.64222 1.59188 1.54333 1.53021 1.57469 1.83164 2.36805 2.83593 2.98727 3.00475 2.97862 2.9094 2.82442 2.7693 2.7197 2.64187 2.5432 2.47254 2.44075 2.36434 2.24415 2.0975 1.96912 1.85367 1.75069 1.59051 1.28643 1.0336 0.950068 0.923171 0.916313 0.910791 0.90978 0.911326 0.914494 0.918801 0.922495 0.924781 0.926397 0.92805 0.92955 0.930878 0.931909 0.932625 0.933191 0.933786 0.934469 0.935202 0.935941 0.936644 0.937198 0.937487 0.937565 0.937686 0.937764 0.937739 1.2 1.2 1.2 1.2 1.2 1.2 1.2 1.2 1.2 1.2 1.2 1.19999 1.19996 1.20015 1.19994 1.19287 1.30972 1.73268 1.85326 1.86367 1.84988 1.83894 1.83551 1.83642 1.83435 1.82906 1.82076 1.81376 1.80951 1.80374 1.79285 1.77606 1.76182 1.7571 1.76026 1.7653 1.76397 1.75477 1.73379 1.71389 1.70031 1.68792 1.67577 1.66177 1.63701 1.5937 1.55112 1.53751 1.55906 1.75789 2.25845 2.78425 3.00791 3.03902 3.01366 2.9429 2.84588 2.78632 2.73387 2.65386 2.551 2.47009 2.43623 2.36879 2.25403 2.10324 1.97076 1.85978 1.76286 1.62142 1.3433 1.06279 0.950591 0.923975 0.911126 0.9082 0.907171 0.909057 0.912706 0.91725 0.920724 0.923024 0.925007 0.927204 0.929057 0.930594 0.931724 0.932474 0.933026 0.933597 0.934278 0.935054 0.935843 0.936581 0.93716 0.937469 0.937564 0.937711 0.937792 0.937765 1.2 1.2 1.2 1.2 1.2 1.2 1.2 1.2 1.2 1.2 1.2 1.19999 1.19995 1.20016 1.20006 1.19289 1.28671 1.70005 1.85037 1.8633 1.8561 1.84901 1.84148 1.83696 1.8321 1.82505 1.81968 1.81746 1.81341 1.80416 1.78901 1.77079 1.75949 1.75836 1.76218 1.7652 1.76111 1.75012 1.73092 1.71416 1.70138 1.68833 1.67514 1.66031 1.63628 1.59813 1.56021 1.54829 1.55457 1.71261 2.18469 2.75512 3.05393 3.09815 3.07107 2.99435 2.88586 2.81288 2.75301 2.66734 2.56285 2.47298 2.43725 2.38397 2.27671 2.12639 1.98894 1.87714 1.7784 1.65502 1.41332 1.10703 0.959008 0.928474 0.907233 0.90656 0.906044 0.906868 0.910572 0.915296 0.918626 0.92108 0.922922 0.925159 0.927276 0.929208 0.930792 0.931885 0.932609 0.933198 0.933828 0.93456 0.935348 0.936123 0.936764 0.937157 0.937333 0.937518 0.937604 0.937578 1.2 1.2 1.2 1.2 1.2 1.2 1.2 1.2 1.2 1.2 1.2 1.2 1.19996 1.20017 1.20037 1.19397 1.26249 1.65833 1.84755 1.86363 1.85985 1.85726 1.84921 1.83962 1.82953 1.8212 1.81807 1.81882 1.81586 1.80665 1.78818 1.76744 1.75684 1.75765 1.76294 1.76345 1.75628 1.74265 1.72723 1.7153 1.70356 1.6907 1.67731 1.6637 1.6427 1.60983 1.57508 1.55994 1.55851 1.69634 2.14014 2.73981 3.08638 3.14278 3.1148 3.02754 2.91041 2.82789 2.76491 2.68279 2.58164 2.48887 2.44421 2.405 2.30765 2.16385 2.02495 1.90562 1.79911 1.69215 1.49155 1.17414 0.976616 0.928782 0.907584 0.90717 0.906003 0.90579 0.908732 0.9132 0.916673 0.919437 0.921062 0.92287 0.924772 0.92673 0.928656 0.930251 0.931403 0.932213 0.932894 0.933598 0.93435 0.935087 0.935745 0.93621 0.936454 0.936695 0.936795 0.936773 1.2 1.2 1.2 1.2 1.2 1.2 1.2 1.2 1.2 1.2 1.2 1.2 1.19996 1.20015 1.20047 1.19438 1.24122 1.61021 1.84272 1.86239 1.86128 1.86263 1.85882 1.84741 1.82857 1.81741 1.81496 1.81809 1.81844 1.81041 1.79122 1.76734 1.75484 1.75525 1.76041 1.75937 1.75121 1.7353 1.72279 1.71475 1.70652 1.69581 1.68375 1.674 1.65941 1.62814 1.58838 1.56582 1.56245 1.68457 2.11324 2.73127 3.09751 3.1587 3.13158 3.04432 2.92559 2.83615 2.77189 2.69976 2.60887 2.51772 2.46266 2.43183 2.3464 2.21266 2.07024 1.94647 1.83409 1.73373 1.56946 1.26518 1.00939 0.929783 0.909478 0.908392 0.906273 0.905693 0.90762 0.911351 0.915175 0.918213 0.91978 0.921102 0.922568 0.924243 0.926162 0.927986 0.929506 0.930648 0.931498 0.932232 0.932966 0.933681 0.934327 0.934831 0.935146 0.935412 0.935506 0.935492 1.2 1.2 1.2 1.2 1.2 1.2 1.2 1.2 1.2 1.2 1.2 1.2 1.19997 1.20011 1.20067 1.19626 1.22246 1.55586 1.83444 1.85991 1.86035 1.8647 1.86602 1.85769 1.83295 1.81426 1.81009 1.8157 1.81987 1.81467 1.798 1.77024 1.7547 1.75302 1.75598 1.75402 1.74602 1.72992 1.71968 1.71426 1.71042 1.70186 1.69355 1.68809 1.67774 1.64655 1.60335 1.57249 1.56559 1.6761 2.08911 2.70932 3.07582 3.13622 3.11371 3.03377 2.91691 2.82395 2.77088 2.71925 2.64206 2.54961 2.48188 2.456 2.38833 2.26743 2.12122 1.99581 1.87917 1.77644 1.63688 1.37251 1.06888 0.94121 0.917577 0.907928 0.907097 0.90647 0.907545 0.910213 0.914146 0.917469 0.9192 0.920297 0.921405 0.92258 0.924174 0.925932 0.927518 0.928847 0.929901 0.93073 0.931469 0.932178 0.9328 0.933307 0.933668 0.93392 0.933997 0.934007 1.2 1.2 1.2 1.2 1.2 1.2 1.2 1.2 1.2 1.2 1.2 1.2 1.19998 1.20005 1.20073 1.19876 1.2069 1.49717 1.82267 1.85645 1.85755 1.86312 1.86955 1.86654 1.84569 1.81348 1.80583 1.80984 1.81995 1.81935 1.806 1.77662 1.75649 1.75172 1.75294 1.74923 1.73998 1.7233 1.71371 1.71241 1.71247 1.70733 1.70257 1.70186 1.69388 1.66159 1.61094 1.57386 1.56526 1.66583 2.05987 2.66501 3.02802 3.09132 3.0797 3.01057 2.90001 2.80905 2.76422 2.73428 2.67486 2.57814 2.499 2.46794 2.42542 2.32185 2.17366 2.04734 1.92697 1.82044 1.70107 1.48949 1.16673 0.968167 0.92681 0.908137 0.909561 0.909457 0.908792 0.910163 0.913582 0.917042 0.919047 0.920094 0.921127 0.921967 0.923026 0.924496 0.925948 0.92722 0.928325 0.929246 0.93002 0.930722 0.93134 0.931838 0.932207 0.932458 0.932522 0.932557 1.2 1.2 1.2 1.2 1.2 1.2 1.2 1.2 1.2 1.2 1.2 1.2 1.19999 1.2 1.20081 1.19862 1.19789 1.43451 1.80644 1.85248 1.85469 1.85677 1.86996 1.87201 1.85923 1.82151 1.80324 1.80167 1.81691 1.82303 1.81257 1.78635 1.7601 1.75128 1.75229 1.74786 1.73785 1.7199 1.7093 1.70773 1.71115 1.71159 1.70978 1.71002 1.7055 1.67701 1.62109 1.57281 1.5603 1.64852 2.01745 2.61028 2.9845 3.05324 3.04712 2.99065 2.89215 2.80531 2.7574 2.7407 2.69771 2.607 2.51527 2.46818 2.44878 2.3686 2.2275 2.09408 1.97547 1.86698 1.75902 1.59767 1.31671 1.03196 0.928875 0.910543 0.911721 0.91268 0.91185 0.911779 0.913712 0.916966 0.919116 0.920148 0.920997 0.921909 0.922665 0.923637 0.924853 0.925971 0.926963 0.927847 0.928626 0.929315 0.92993 0.930424 0.930788 0.931045 0.93112 0.931181 1.2 1.2 1.2 1.2 1.2 1.2 1.2 1.2 1.2 1.2 1.2 1.2 1.19999 1.19999 1.20067 1.19874 1.19243 1.37152 1.78256 1.84783 1.85294 1.85042 1.86512 1.87436 1.86871 1.83696 1.80374 1.79685 1.80895 1.82287 1.8178 1.79826 1.7658 1.75193 1.75147 1.74919 1.74082 1.7219 1.70821 1.70499 1.70934 1.71492 1.7165 1.71549 1.71026 1.68502 1.62897 1.57037 1.55168 1.61617 1.94265 2.53574 2.94832 3.02652 3.02385 2.97879 2.89898 2.81387 2.75665 2.73608 2.70965 2.63773 2.53584 2.46846 2.45486 2.40508 2.28565 2.13751 2.02107 1.9128 1.80912 1.68096 1.46595 1.12891 0.948706 0.920264 0.90712 0.912624 0.914022 0.914615 0.915408 0.917371 0.919593 0.920681 0.921081 0.921736 0.9225 0.923249 0.92416 0.925051 0.925856 0.926596 0.927303 0.92796 0.928549 0.929038 0.929397 0.929651 0.929744 0.929828 1.2 1.2 1.2 1.2 1.2 1.2 1.2 1.2 1.2 1.2 1.2 1.2 1.19999 1.19997 1.20039 1.19934 1.19169 1.31588 1.73856 1.8439 1.85309 1.84692 1.8543 1.87314 1.87392 1.85403 1.81039 1.79604 1.79793 1.81818 1.82152 1.80823 1.77744 1.75431 1.74975 1.74997 1.74414 1.72885 1.71179 1.70613 1.71012 1.71717 1.72148 1.71809 1.70946 1.6849 1.63317 1.56961 1.54319 1.57146 1.82612 2.39453 2.88495 3.01024 3.01456 2.97612 2.91413 2.8348 2.76466 2.72812 2.71242 2.66396 2.56659 2.47763 2.44806 2.42917 2.34402 2.19068 2.06178 1.95202 1.85494 1.75056 1.59104 1.31252 1.01328 0.92034 0.904586 0.91063 0.914494 0.915963 0.917347 0.918874 0.920231 0.921406 0.921831 0.921849 0.922276 0.922906 0.923602 0.924345 0.92505 0.925635 0.926167 0.926701 0.927235 0.927713 0.928057 0.928292 0.928385 0.928476 1.2 1.2 1.2 1.2 1.2 1.2 1.2 1.2 1.2 1.2 1.2 1.2 1.2 1.19997 1.20012 1.20023 1.19434 1.2693 1.67335 1.84173 1.85493 1.84466 1.84399 1.86535 1.87486 1.865 1.82543 1.79677 1.79205 1.80876 1.82036 1.81367 1.79377 1.76339 1.74965 1.74772 1.74502 1.73685 1.72189 1.71347 1.7146 1.72058 1.72396 1.71861 1.70628 1.6823 1.63539 1.57491 1.5363 1.53121 1.69105 2.16935 2.74059 2.98611 3.01287 2.98223 2.93412 2.86446 2.78735 2.73419 2.71088 2.68206 2.60866 2.49996 2.44217 2.44064 2.3913 2.26194 2.10472 1.98922 1.89736 1.80687 1.69108 1.49884 1.15446 0.949116 0.912781 0.901518 0.91263 0.915834 0.917951 0.919973 0.921443 0.92207 0.922426 0.922673 0.922563 0.922814 0.923258 0.923789 0.92433 0.924805 0.925206 0.925613 0.92608 0.926558 0.926926 0.927162 0.927256 0.927352 1.2 1.2 1.2 1.2 1.2 1.2 1.2 1.2 1.2 1.2 1.2 1.2 1.2 1.19997 1.2001 1.20058 1.19627 1.23113 1.59352 1.83863 1.85741 1.8443 1.83919 1.85134 1.87105 1.86994 1.84283 1.80236 1.79211 1.799 1.81396 1.81461 1.80368 1.77991 1.75803 1.74772 1.7441 1.7399 1.73308 1.72516 1.72426 1.72621 1.72577 1.71816 1.70306 1.67978 1.64138 1.58529 1.53582 1.51909 1.57657 1.88417 2.46244 2.90927 3.00507 2.99809 2.9632 2.90398 2.82947 2.76232 2.71873 2.69827 2.65121 2.5494 2.45238 2.43523 2.42788 2.3374 2.1672 2.03042 1.93515 1.85862 1.76754 1.6273 1.38327 1.04007 0.918585 0.899151 0.906393 0.913453 0.917244 0.919773 0.922163 0.92321 0.923131 0.923183 0.923169 0.923158 0.923386 0.923691 0.92395 0.924229 0.924485 0.924748 0.92509 0.925504 0.925891 0.926164 0.926277 0.926378 1.2 1.2 1.2 1.2 1.2 1.2 1.2 1.2 1.2 1.2 1.2 1.2 1.2 1.19998 1.20006 1.20094 1.19833 1.20385 1.49763 1.83058 1.85872 1.84917 1.83788 1.83861 1.86171 1.86849 1.85453 1.81499 1.79621 1.79537 1.80589 1.81002 1.80468 1.79221 1.77305 1.75769 1.74686 1.7407 1.7385 1.73613 1.73339 1.73202 1.72759 1.71712 1.70054 1.67878 1.65093 1.60484 1.55319 1.52201 1.51754 1.6474 2.08312 2.65388 2.9677 3.01652 2.99856 2.95622 2.88581 2.81205 2.75111 2.71583 2.69014 2.618 2.49314 2.43594 2.44382 2.39739 2.25942 2.08529 1.97616 1.90283 1.82864 1.72568 1.55353 1.25678 0.969222 0.906002 0.895902 0.906468 0.914213 0.918322 0.920949 0.923195 0.924033 0.92382 0.923664 0.92364 0.923515 0.923567 0.923729 0.923935 0.924129 0.924306 0.924534 0.924839 0.925172 0.925436 0.925552 0.925647 1.2 1.2 1.2 1.2 1.2 1.2 1.2 1.2 1.2 1.2 1.2 1.2 1.2 1.19999 1.19999 1.20072 1.19863 1.19297 1.39355 1.80589 1.85831 1.85814 1.83709 1.83304 1.84879 1.86272 1.85778 1.8304 1.80327 1.79748 1.80288 1.80476 1.80074 1.79187 1.78273 1.77308 1.76074 1.74758 1.74015 1.73912 1.73721 1.73558 1.73015 1.71903 1.70111 1.67838 1.65853 1.63185 1.58455 1.53426 1.51746 1.54029 1.74549 2.26022 2.7904 3.00857 3.03815 3.01478 2.95448 2.87187 2.80079 2.74847 2.72168 2.67963 2.57383 2.45985 2.4325 2.43424 2.35092 2.17785 2.02862 1.94741 1.88315 1.79987 1.68644 1.49375 1.14338 0.938068 0.902472 0.893481 0.906681 0.914631 0.918535 0.920969 0.923185 0.923734 0.923917 0.923786 0.92356 0.923415 0.923456 0.92361 0.923822 0.924 0.924194 0.924427 0.924683 0.924894 0.925018 0.925105 1.2 1.2 1.2 1.2 1.2 1.2 1.2 1.2 1.2 1.2 1.2 1.2 1.2 1.19999 1.19995 1.20016 1.19996 1.19235 1.30763 1.7424 1.85704 1.86563 1.83943 1.83166 1.83763 1.85482 1.8568 1.84024 1.81203 1.80319 1.80462 1.80466 1.7982 1.78587 1.78134 1.78107 1.77756 1.76601 1.74931 1.73856 1.7358 1.73467 1.73096 1.72153 1.70656 1.68394 1.66518 1.65164 1.62041 1.57023 1.5293 1.51637 1.57591 1.88933 2.46187 2.92283 3.05619 3.06514 3.01749 2.93381 2.85531 2.79314 2.74897 2.72117 2.65711 2.52463 2.43209 2.42823 2.40344 2.29766 2.11334 1.99572 1.93149 1.8683 1.77069 1.63973 1.42518 1.08787 0.923589 0.892744 0.896647 0.907302 0.914358 0.917768 0.919836 0.921789 0.922962 0.923244 0.923272 0.923164 0.923141 0.923224 0.923388 0.923533 0.923704 0.923917 0.924149 0.924343 0.924489 0.924567 1.2 1.2 1.2 1.2 1.2 1.2 1.2 1.2 1.2 1.2 1.2 1.2 1.2 1.2 1.19996 1.20015 1.20046 1.19388 1.24834 1.64322 1.85418 1.86918 1.84558 1.83108 1.83033 1.84735 1.8529 1.84487 1.81985 1.80815 1.80793 1.80944 1.8017 1.78287 1.77424 1.77741 1.78659 1.78402 1.76876 1.74636 1.73297 1.72826 1.72746 1.72189 1.7128 1.69726 1.67599 1.66303 1.64536 1.60523 1.55544 1.52671 1.52241 1.66671 2.12908 2.70866 3.03459 3.08541 3.05868 2.98928 2.90439 2.83771 2.7802 2.73852 2.69979 2.61002 2.47103 2.40859 2.41125 2.37573 2.24379 2.06598 1.97388 1.91933 1.84681 1.73674 1.5945 1.37759 1.04966 0.914545 0.891251 0.896221 0.906307 0.913434 0.916323 0.91827 0.91974 0.920803 0.921491 0.92196 0.922344 0.922538 0.922685 0.922801 0.922945 0.923147 0.923402 0.923641 0.923829 0.923909 1.2 1.2 1.2 1.2 1.2 1.2 1.2 1.2 1.2 1.2 1.2 1.2 1.2 1.2 1.19998 1.20007 1.20086 1.19845 1.20763 1.52262 1.84201 1.86819 1.85284 1.83132 1.82675 1.84021 1.85016 1.84597 1.82702 1.81071 1.80909 1.81314 1.80965 1.79143 1.77044 1.76803 1.7835 1.79269 1.78416 1.76424 1.73695 1.72306 1.72096 1.72176 1.71797 1.71032 1.69312 1.67469 1.66213 1.6338 1.58439 1.53833 1.52362 1.57742 1.87665 2.4558 2.93172 3.0747 3.08046 3.02931 2.94531 2.87098 2.80926 2.75199 2.7056 2.6563 2.54992 2.41718 2.38656 2.39393 2.34852 2.19359 2.03191 1.95624 1.90509 1.82356 1.70537 1.56221 1.34609 1.03778 0.913098 0.890513 0.892671 0.905303 0.911974 0.914951 0.916635 0.917966 0.918591 0.919034 0.919452 0.919938 0.920453 0.920964 0.921377 0.921705 0.922012 0.922269 0.922465 0.922547 1.2 1.2 1.2 1.2 1.2 1.2 1.2 1.2 1.2 1.2 1.2 1.2 1.2 1.2 1.19999 1.19999 1.20072 1.19865 1.19259 1.39369 1.81064 1.86208 1.86045 1.83268 1.82624 1.83381 1.84656 1.84675 1.83328 1.8133 1.80773 1.81315 1.81462 1.80586 1.77725 1.76691 1.77117 1.79035 1.79079 1.77821 1.75021 1.7239 1.71674 1.71951 1.72176 1.71891 1.71046 1.69294 1.67795 1.65702 1.61166 1.55788 1.53855 1.54083 1.72517 2.23581 2.78646 3.0361 3.07705 3.05172 2.98474 2.90193 2.83709 2.77007 2.70004 2.65859 2.60604 2.48648 2.37994 2.36988 2.37888 2.32492 2.15377 2.01171 1.94342 1.8901 1.80374 1.68949 1.54818 1.34121 1.04321 0.919273 0.897903 0.892889 0.904338 0.91045 0.913701 0.914844 0.916084 0.916715 0.916718 0.916761 0.917093 0.917627 0.918078 0.918483 0.918844 0.919109 0.919266 0.919351 1.2 1.2 1.2 1.2 1.2 1.2 1.2 1.2 1.2 1.2 1.2 1.2 1.2 1.2 1.19999 1.19995 1.20016 1.19999 1.19215 1.29453 1.72576 1.85474 1.86448 1.83717 1.82843 1.83039 1.84212 1.84507 1.83804 1.81797 1.80837 1.80959 1.81422 1.81306 1.79537 1.77215 1.76621 1.77967 1.78788 1.78212 1.76364 1.7334 1.71708 1.71554 1.72167 1.72404 1.72063 1.71192 1.69777 1.67923 1.63886 1.57885 1.53989 1.53183 1.64123 2.04968 2.64008 2.98582 3.05553 3.05925 3.01616 2.93213 2.85837 2.79344 2.71217 2.64611 2.61955 2.56787 2.43274 2.36389 2.36661 2.37425 2.30762 2.131 2.00341 1.9364 1.88012 1.79462 1.68944 1.56144 1.36619 1.07622 0.931865 0.901595 0.894534 0.897639 0.908112 0.911864 0.914142 0.914508 0.914523 0.914658 0.914911 0.915226 0.915585 0.915792 0.915872 0.915915 0.915945 0.916017 1.2 1.2 1.2 1.2 1.2 1.2 1.2 1.2 1.2 1.2 1.2 1.2 1.2 1.2 1.2 1.19997 1.20011 1.20065 1.19602 1.23151 1.5993 1.8432 1.86237 1.84345 1.83214 1.83145 1.83972 1.84278 1.83846 1.82444 1.81119 1.8091 1.81215 1.81235 1.80573 1.78757 1.77338 1.77135 1.77664 1.77653 1.76834 1.74632 1.72222 1.71487 1.71766 1.72368 1.7257 1.72285 1.71603 1.7015 1.66676 1.60415 1.54453 1.52957 1.58293 1.87987 2.47274 2.93186 3.04375 3.0567 3.02902 2.95504 2.87384 2.81567 2.74787 2.66131 2.61742 2.60757 2.55384 2.41536 2.36751 2.38129 2.38422 2.30415 2.1261 2.00375 1.93689 1.88344 1.80549 1.70557 1.59189 1.41297 1.12903 0.959695 0.912405 0.907978 0.899371 0.902427 0.910068 0.911927 0.912492 0.912888 0.913114 0.912865 0.912573 0.912638 0.912874 0.913097 0.913239 0.913344 1.2 1.2 1.2 1.2 1.2 1.2 1.2 1.2 1.2 1.2 1.2 1.2 1.2 1.2 1.2 1.19999 1.2 1.20086 1.1986 1.19842 1.45475 1.81917 1.85341 1.84722 1.83635 1.83525 1.84119 1.84177 1.83718 1.82568 1.8164 1.8135 1.81345 1.8113 1.80594 1.79649 1.7861 1.77548 1.76919 1.76538 1.76182 1.7539 1.73408 1.71772 1.71492 1.71971 1.72512 1.72666 1.72397 1.71535 1.69254 1.6374 1.56455 1.53413 1.53679 1.73026 2.26898 2.8389 3.03939 3.06516 3.04534 2.98281 2.89526 2.83245 2.78955 2.72014 2.64171 2.61831 2.61631 2.55501 2.42248 2.38436 2.40484 2.40201 2.30848 2.12817 2.00846 1.94377 1.89759 1.82732 1.73882 1.63654 1.48318 1.23898 1.0269 0.941722 0.914022 0.914121 0.906072 0.905593 0.910373 0.912016 0.911749 0.910586 0.910015 0.910009 0.909983 0.910102 0.910373 0.910511 1.2 1.2 1.2 1.2 1.2 1.2 1.2 1.2 1.2 1.2 1.2 1.2 1.2 1.2 1.2 1.2 1.19996 1.20013 1.19989 1.19308 1.31941 1.75455 1.84338 1.85011 1.837 1.83735 1.84427 1.84376 1.83677 1.82291 1.81816 1.81809 1.82005 1.81595 1.80561 1.79626 1.79093 1.78369 1.77198 1.76158 1.75521 1.75165 1.74318 1.72736 1.71761 1.71677 1.71996 1.72425 1.72359 1.71854 1.70598 1.67005 1.59921 1.53534 1.52111 1.61606 2.02004 2.66244 3.02527 3.08639 3.08239 3.03036 2.93351 2.85479 2.81781 2.79282 2.72653 2.65644 2.64235 2.64131 2.57023 2.44216 2.40641 2.42464 2.4093 2.31176 2.13496 2.0158 1.95396 1.91144 1.84924 1.77348 1.68625 1.54701 1.37007 1.14158 1.00208 0.939914 0.922898 0.921948 0.914448 0.910853 0.908528 0.907492 0.910631 0.911374 0.911459 0.911072 0.910879 0.910834 1.2 1.2 1.2 1.2 1.2 1.2 1.2 1.2 1.2 1.2 1.2 1.2 1.2 